{
  "elements_phases": [
    {
      "atomic_number": 1,
      "name": "Hidrogênio",
      "symbol": "H",
      "melting_point_K": 13.99,
      "melting_point_C": -259.16,
      "melting_point_F": -434.49,
      "boiling_point_K": 20.271,
      "boiling_point_C": -252.879,
      "boiling_point_F": -423.182,
      "plasma_start_K": 10000,
      "plasma_start_C": 9726.85,
      "plasma_start_F": 17540.33,
      "notes_plasma": "Alta temperatura (>10.000 K) ou forte campo elétrico/magnético para ionização."
    },
    {
      "atomic_number": 2,
      "name": "Hélio",
      "symbol": "He",
      "melting_point_K": null,
      "melting_point_C": null,
      "melting_point_F": null,
      "boiling_point_K": 4.22,
      "boiling_point_C": -268.93,
      "boiling_point_F": -452.07,
      "notes_melting": "Não solidifica sob pressão atmosférica normal (precisa de >25 atm).",
      "plasma_start_K": 15000,
      "plasma_start_C": 14726.85,
      "plasma_start_F": 26540.33,
      "notes_plasma": "Similar ao hidrogênio, requer alta energia para ionização."
    },
    {
      "atomic_number": 3,
      "name": "Lítio",
      "symbol": "Li",
      "melting_point_K": 453.69,
      "melting_point_C": 180.54,
      "melting_point_F": 356.97,
      "boiling_point_K": 1615,
      "boiling_point_C": 1342,
      "boiling_point_F": 2447.6,
      "plasma_start_K": 7000,
      "plasma_start_C": 6726.85,
      "plasma_start_F": 12140.33,
      "notes_plasma": "Temperatura para início de ionização significativa."
    },
    {
      "atomic_number": 4,
      "name": "Berílio",
      "symbol": "Be",
      "melting_point_K": 1560,
      "melting_point_C": 1287,
      "melting_point_F": 2348.6,
      "boiling_point_K": 2742,
      "boiling_point_C": 2469,
      "boiling_point_F": 4476.2,
      "plasma_start_K": 8000,
      "plasma_start_C": 7726.85,
      "plasma_start_F": 13940.33,
      "notes_plasma": "Temperatura para início de ionização significativa."
    },
    {
      "atomic_number": 5,
      "name": "Boro",
      "symbol": "B",
      "melting_point_K": 2349,
      "melting_point_C": 2076,
      "melting_point_F": 3768.8,
      "boiling_point_K": 4200,
      "boiling_point_C": 3927,
      "boiling_point_F": 7100.6,
      "plasma_start_K": 10000,
      "plasma_start_C": 9726.85,
      "plasma_start_F": 17540.33,
      "notes_plasma": "Temperatura para início de ionização significativa."
    },
    {
      "atomic_number": 6,
      "name": "Carbono",
      "symbol": "C",
      "melting_point_K": 3948,
      "melting_point_C": 3675,
      "melting_point_F": 6647.0,
      "boiling_point_K": 4827,
      "boiling_point_C": 4554,
      "boiling_point_F": 8229.2,
      "notes_melting": "Sublima a 3900 K sob 1 atm (ponto triplo a ~4300 K, 10 MPa).",
      "plasma_start_K": 12000,
      "plasma_start_C": 11726.85,
      "plasma_start_F": 21140.33,
      "notes_plasma": "Temperatura para início de ionização significativa."
    },
    {
      "atomic_number": 7,
      "name": "Nitrogênio",
      "symbol": "N",
      "melting_point_K": 63.15,
      "melting_point_C": -210.0,
      "melting_point_F": -346.0,
      "boiling_point_K": 77.35,
      "boiling_point_C": -195.79,
      "boiling_point_F": -320.42,
      "plasma_start_K": 10000,
      "plasma_start_C": 9726.85,
      "plasma_start_F": 17540.33,
      "notes_plasma": "Temperatura para início de ionização significativa."
    },
    {
      "atomic_number": 8,
      "name": "Oxigênio",
      "symbol": "O",
      "melting_point_K": 54.36,
      "melting_point_C": -218.79,
      "melting_point_F": -361.82,
      "boiling_point_K": 90.188,
      "boiling_point_C": -182.962,
      "boiling_point_F": -297.332,
      "plasma_start_K": 10000,
      "plasma_start_C": 9726.85,
      "plasma_start_F": 17540.33,
      "notes_plasma": "Temperatura para início de ionização significativa."
    },
    {
      "atomic_number": 9,
      "name": "Flúor",
      "symbol": "F",
      "melting_point_K": 53.53,
      "melting_point_C": -219.62,
      "melting_point_F": -363.32,
      "boiling_point_K": 85.03,
      "boiling_point_C": -188.12,
      "boiling_point_F": -306.62,
      "plasma_start_K": 9000,
      "plasma_start_C": 8726.85,
      "plasma_start_F": 15740.33,
      "notes_plasma": "Temperatura para início de ionização significativa."
    },
    {
      "atomic_number": 10,
      "name": "Neônio",
      "symbol": "Ne",
      "melting_point_K": 24.56,
      "melting_point_C": -248.59,
      "melting_point_F": -415.46,
      "boiling_point_K": 27.07,
      "boiling_point_C": -246.08,
      "boiling_point_F": -410.94,
      "plasma_start_K": 15000,
      "plasma_start_C": 14726.85,
      "plasma_start_F": 26540.33,
      "notes_plasma": "Gases nobres requerem mais energia para ionização."
    },
    {
      "atomic_number": 11,
      "name": "Sódio",
      "symbol": "Na",
      "melting_point_K": 370.94,
      "melting_point_C": 97.79,
      "melting_point_F": 208.02,
      "boiling_point_K": 1156,
      "boiling_point_C": 883,
      "boiling_point_F": 1621.4,
      "plasma_start_K": 6000,
      "plasma_start_C": 5726.85,
      "plasma_start_F": 10340.33,
      "notes_plasma": "Temperatura para início de ionização significativa."
    },
    {
      "atomic_number": 12,
      "name": "Magnésio",
      "symbol": "Mg",
      "melting_point_K": 923,
      "melting_point_C": 650,
      "melting_point_F": 1202.0,
      "boiling_point_K": 1363,
      "boiling_point_C": 1100,
      "boiling_point_F": 2012.0,
      "plasma_start_K": 7000,
      "plasma_start_C": 6726.85,
      "plasma_start_F": 12140.33,
      "notes_plasma": "Temperatura para início de ionização significativa."
    },
    {
      "atomic_number": 13,
      "name": "Alumínio",
      "symbol": "Al",
      "melting_point_K": 933.47,
      "melting_point_C": 660.32,
      "melting_point_F": 1220.58,
      "boiling_point_K": 2792,
      "boiling_point_C": 2519,
      "boiling_point_F": 4566.2,
      "plasma_start_K": 8000,
      "plasma_start_C": 7726.85,
      "plasma_start_F": 13940.33,
      "notes_plasma": "Temperatura para início de ionização significativa."
    },
    {
      "atomic_number": 14,
      "name": "Silício",
      "symbol": "Si",
      "melting_point_K": 1687,
      "melting_point_C": 1414,
      "melting_point_F": 2577.2,
      "boiling_point_K": 3538,
      "boiling_point_C": 3265,
      "boiling_point_F": 5909.0,
      "plasma_start_K": 9000,
      "plasma_start_C": 8726.85,
      "plasma_start_F": 15740.33,
      "notes_plasma": "Temperatura para início de ionização significativa."
    },
    {
      "atomic_number": 15,
      "name": "Fósforo",
      "symbol": "P",
      "melting_point_K": 317.3,
      "melting_point_C": 44.15,
      "melting_point_F": 111.47,
      "boiling_point_K": 553.7,
      "boiling_point_C": 280.55,
      "boiling_point_F": 536.99,
      "notes_melting": "Para fósforo branco (a forma mais comum).",
      "plasma_start_K": 7000,
      "plasma_start_C": 6726.85,
      "plasma_start_F": 12140.33,
      "notes_plasma": "Temperatura para início de ionização significativa."
    },
    {
      "atomic_number": 16,
      "name": "Enxofre",
      "symbol": "S",
      "melting_point_K": 388.36,
      "melting_point_C": 115.21,
      "melting_point_F": 239.38,
      "boiling_point_K": 717.8,
      "boiling_point_C": 444.6,
      "boiling_point_F": 832.28,
      "plasma_start_K": 8000,
      "plasma_start_C": 7726.85,
      "plasma_start_F": 13940.33,
      "notes_plasma": "Temperatura para início de ionização significativa."
    },
    {
      "atomic_number": 17,
      "name": "Cloro",
      "symbol": "Cl",
      "melting_point_K": 171.6,
      "melting_point_C": -101.5,
      "melting_point_F": -150.7,
      "boiling_point_K": 239.11,
      "boiling_point_C": -34.04,
      "boiling_point_F": -29.27,
      "plasma_start_K": 9000,
      "plasma_start_C": 8726.85,
      "plasma_start_F": 15740.33,
      "notes_plasma": "Temperatura para início de ionização significativa."
    },
    {
      "atomic_number": 18,
      "name": "Argônio",
      "symbol": "Ar",
      "melting_point_K": 83.8,
      "melting_point_C": -189.3,
      "melting_point_F": -308.74,
      "boiling_point_K": 87.3,
      "boiling_point_C": -185.8,
      "boiling_point_F": -302.44,
      "plasma_start_K": 15000,
      "plasma_start_C": 14726.85,
      "plasma_start_F": 26540.33,
      "notes_plasma": "Gases nobres requerem mais energia para ionização."
    },
    {
      "atomic_number": 19,
      "name": "Potássio",
      "symbol": "K",
      "melting_point_K": 336.7,
      "melting_point_C": 63.5,
      "melting_point_F": 146.3,
      "boiling_point_K": 1032,
      "boiling_point_C": 759,
      "boiling_point_F": 1398.2,
      "plasma_start_K": 6000,
      "plasma_start_C": 5726.85,
      "plasma_start_F": 10340.33,
      "notes_plasma": "Temperatura para início de ionização significativa."
    },
    {
      "atomic_number": 20,
      "name": "Cálcio",
      "symbol": "Ca",
      "melting_point_K": 1115,
      "melting_point_C": 842,
      "melting_point_F": 1547.6,
      "boiling_point_K": 1757,
      "boiling_point_C": 1484,
      "boiling_point_F": 2703.2,
      "plasma_start_K": 7000,
      "plasma_start_C": 6726.85,
      "plasma_start_F": 12140.33,
      "notes_plasma": "Temperatura para início de ionização significativa."
    },
    {
      "atomic_number": 21,
      "name": "Escândio",
      "symbol": "Sc",
      "melting_point_K": 1814,
      "melting_point_C": 1541,
      "melting_point_F": 2805.8,
      "boiling_point_K": 3109,
      "boiling_point_C": 2836,
      "boiling_point_F": 5136.8,
      "plasma_start_K": 9000,
      "plasma_start_C": 8726.85,
      "plasma_start_F": 15740.33,
      "notes_plasma": "Temperatura para início de ionização significativa."
    },
    {
      "atomic_number": 22,
      "name": "Titânio",
      "symbol": "Ti",
      "melting_point_K": 1941,
      "melting_point_C": 1668,
      "melting_point_F": 3034.4,
      "boiling_point_K": 3560,
      "boiling_point_C": 3287,
      "boiling_point_F": 5950.4,
      "plasma_start_K": 9000,
      "plasma_start_C": 8726.85,
      "plasma_start_F": 15740.33,
      "notes_plasma": "Temperatura para início de ionização significativa."
    },
    {
      "atomic_number": 23,
      "name": "Vanádio",
      "symbol": "V",
      "melting_point_K": 2183,
      "melting_point_C": 1910,
      "melting_point_F": 3470.0,
      "boiling_point_K": 3680,
      "boiling_point_C": 3407,
      "boiling_point_F": 6164.6,
      "plasma_start_K": 9000,
      "plasma_start_C": 8726.85,
      "plasma_start_F": 15740.33,
      "notes_plasma": "Temperatura para início de ionização significativa."
    },
    {
      "atomic_number": 24,
      "name": "Crômio",
      "symbol": "Cr",
      "melting_point_K": 2180,
      "melting_point_C": 1907,
      "melting_point_F": 3464.6,
      "boiling_point_K": 2944,
      "boiling_point_C": 2671,
      "boiling_point_F": 4839.8,
      "plasma_start_K": 8500,
      "plasma_start_C": 8226.85,
      "plasma_start_F": 14840.33,
      "notes_plasma": "Temperatura para início de ionização significativa."
    },
    {
      "atomic_number": 25,
      "name": "Manganês",
      "symbol": "Mn",
      "melting_point_K": 1519,
      "melting_point_C": 1246,
      "melting_point_F": 2274.8,
      "boiling_point_K": 2334,
      "boiling_point_C": 2061,
      "boiling_point_F": 3741.8,
      "plasma_start_K": 8000,
      "plasma_start_C": 7726.85,
      "plasma_start_F": 13940.33,
      "notes_plasma": "Temperatura para início de ionização significativa."
    },
    {
      "atomic_number": 26,
      "name": "Ferro",
      "symbol": "Fe",
      "melting_point_K": 1811,
      "melting_point_C": 1538,
      "melting_point_F": 2800.4,
      "boiling_point_K": 3134,
      "boiling_point_C": 2861,
      "boiling_point_F": 5181.8,
      "plasma_start_K": 9000,
      "plasma_start_C": 8726.85,
      "plasma_start_F": 15740.33,
      "notes_plasma": "Temperatura para início de ionização significativa."
    },
    {
      "atomic_number": 27,
      "name": "Cobalto",
      "symbol": "Co",
      "melting_point_K": 1768,
      "melting_point_C": 1495,
      "melting_point_F": 2723.0,
      "boiling_point_K": 3200,
      "boiling_point_C": 2927,
      "boiling_point_F": 5300.6,
      "plasma_start_K": 9000,
      "plasma_start_C": 8726.85,
      "plasma_start_F": 15740.33,
      "notes_plasma": "Temperatura para início de ionização significativa."
    },
    {
      "atomic_number": 28,
      "name": "Níquel",
      "symbol": "Ni",
      "melting_point_K": 1728,
      "melting_point_C": 1455,
      "melting_point_F": 2651.0,
      "boiling_point_K": 3186,
      "boiling_point_C": 2913,
      "boiling_point_F": 5275.4,
      "plasma_start_K": 9000,
      "plasma_start_C": 8726.85,
      "plasma_start_F": 15740.33,
      "notes_plasma": "Temperatura para início de ionização significativa."
    },
    {
      "atomic_number": 29,
      "name": "Cobre",
      "symbol": "Cu",
      "melting_point_K": 1357.77,
      "melting_point_C": 1084.62,
      "melting_point_F": 1984.32,
      "boiling_point_K": 2835,
      "boiling_point_C": 2562,
      "boiling_point_F": 4643.6,
      "plasma_start_K": 8000,
      "plasma_start_C": 7726.85,
      "plasma_start_F": 13940.33,
      "notes_plasma": "Temperatura para início de ionização significativa."
    },
    {
      "atomic_number": 30,
      "name": "Zinco",
      "symbol": "Zn",
      "melting_point_K": 692.68,
      "melting_point_C": 419.53,
      "melting_point_F": 787.15,
      "boiling_point_K": 1180,
      "boiling_point_C": 907,
      "boiling_point_F": 1664.6,
      "plasma_start_K": 7000,
      "plasma_start_C": 6726.85,
      "plasma_start_F": 12140.33,
      "notes_plasma": "Temperatura para início de ionização significativa."
    },
    {
      "atomic_number": 31,
      "name": "Gálio",
      "symbol": "Ga",
      "melting_point_K": 302.91,
      "melting_point_C": 29.76,
      "melting_point_F": 85.57,
      "boiling_point_K": 2477,
      "boiling_point_C": 2204,
      "boiling_point_F": 3999.2,
      "plasma_start_K": 8000,
      "plasma_start_C": 7726.85,
      "plasma_start_F": 13940.33,
      "notes_plasma": "Temperatura para início de ionização significativa."
    },
    {
      "atomic_number": 32,
      "name": "Germânio",
      "symbol": "Ge",
      "melting_point_K": 1211.4,
      "melting_point_C": 938.25,
      "melting_point_F": 1720.85,
      "boiling_point_K": 3106,
      "boiling_point_C": 2833,
      "boiling_point_F": 5131.4,
      "plasma_start_K": 9000,
      "plasma_start_C": 8726.85,
      "plasma_start_F": 15740.33,
      "notes_plasma": "Temperatura para início de ionização significativa."
    },
    {
      "atomic_number": 33,
      "name": "Arsênio",
      "symbol": "As",
      "melting_point_K": 1090,
      "melting_point_C": 817,
      "melting_point_F": 1502.6,
      "boiling_point_K": 887,
      "boiling_point_C": 614,
      "boiling_point_F": 1137.2,
      "notes_boiling": "Sublima a 614 °C",
      "plasma_start_K": 8000,
      "plasma_start_C": 7726.85,
      "plasma_start_F": 13940.33,
      "notes_plasma": "Temperatura para início de ionização significativa."
    },
    {
      "atomic_number": 34,
      "name": "Selênio",
      "symbol": "Se",
      "melting_point_K": 494,
      "melting_point_C": 221,
      "melting_point_F": 429.8,
      "boiling_point_K": 958,
      "boiling_point_C": 685,
      "boiling_point_F": 1265.0,
      "plasma_start_K": 8000,
      "plasma_start_C": 7726.85,
      "plasma_start_F": 13940.33,
      "notes_plasma": "Temperatura para início de ionização significativa."
    },
    {
      "atomic_number": 35,
      "name": "Bromo",
      "symbol": "Br",
      "melting_point_K": 265.8,
      "melting_point_C": -7.2,
      "melting_point_F": 19.04,
      "boiling_point_K": 332.0,
      "boiling_point_C": 58.8,
      "boiling_point_F": 137.84,
      "plasma_start_K": 9000,
      "plasma_start_C": 8726.85,
      "plasma_start_F": 15740.33,
      "notes_plasma": "Temperatura para início de ionização significativa."
    },
    {
      "atomic_number": 36,
      "name": "Criptônio",
      "symbol": "Kr",
      "melting_point_K": 115.79,
      "melting_point_C": -157.36,
      "melting_point_F": -259.25,
      "boiling_point_K": 120.85,
      "boiling_point_C": -152.3,
      "boiling_point_F": -242.14,
      "plasma_start_K": 15000,
      "plasma_start_C": 14726.85,
      "plasma_start_F": 26540.33,
      "notes_plasma": "Gases nobres requerem mais energia para ionização."
    },
    {
      "atomic_number": 37,
      "name": "Rubídio",
      "symbol": "Rb",
      "melting_point_K": 312.46,
      "melting_point_C": 39.31,
      "melting_point_F": 102.76,
      "boiling_point_K": 961,
      "boiling_point_C": 688,
      "boiling_point_F": 1270.4,
      "plasma_start_K": 5000,
      "plasma_start_C": 4726.85,
      "plasma_start_F": 8540.33,
      "notes_plasma": "Alcalinos são mais fáceis de ionizar."
    },
    {
      "atomic_number": 38,
      "name": "Estrôncio",
      "symbol": "Sr",
      "melting_point_K": 1050,
      "melting_point_C": 777,
      "melting_point_F": 1430.6,
      "boiling_point_K": 1655,
      "boiling_point_C": 1382,
      "boiling_point_F": 2519.6,
      "plasma_start_K": 6000,
      "plasma_start_C": 5726.85,
      "plasma_start_F": 10340.33,
      "notes_plasma": "Temperatura para início de ionização significativa."
    },
    {
      "atomic_number": 39,
      "name": "Ítrio",
      "symbol": "Y",
      "melting_point_K": 1799,
      "melting_point_C": 1526,
      "melting_point_F": 2778.8,
      "boiling_point_K": 3203,
      "boiling_point_C": 2930,
      "boiling_point_F": 5306.0,
      "plasma_start_K": 9000,
      "plasma_start_C": 8726.85,
      "plasma_start_F": 15740.33,
      "notes_plasma": "Temperatura para início de ionização significativa."
    },
    {
      "atomic_number": 40,
      "name": "Zircônio",
      "symbol": "Zr",
      "melting_point_K": 2128,
      "melting_point_C": 1855,
      "melting_point_F": 3371.0,
      "boiling_point_K": 4650,
      "boiling_point_C": 4377,
      "boiling_point_F": 7910.6,
      "plasma_start_K": 9500,
      "plasma_start_C": 9226.85,
      "plasma_start_F": 16640.33,
      "notes_plasma": "Temperatura para início de ionização significativa."
    },
    {
      "atomic_number": 41,
      "name": "Nióbio",
      "symbol": "Nb",
      "melting_point_K": 2750,
      "melting_point_C": 2477,
      "melting_point_F": 4490.6,
      "boiling_point_K": 5017,
      "boiling_point_C": 4744,
      "boiling_point_F": 8571.2,
      "plasma_start_K": 10000,
      "plasma_start_C": 9726.85,
      "plasma_start_F": 17540.33,
      "notes_plasma": "Temperatura para início de ionização significativa."
    },
    {
      "atomic_number": 42,
      "name": "Molibdênio",
      "symbol": "Mo",
      "melting_point_K": 2896,
      "melting_point_C": 2623,
      "melting_point_F": 4753.4,
      "boiling_point_K": 4912,
      "boiling_point_C": 4639,
      "boiling_point_F": 8382.2,
      "plasma_start_K": 10000,
      "plasma_start_C": 9726.85,
      "plasma_start_F": 17540.33,
      "notes_plasma": "Temperatura para início de ionização significativa."
    },
    {
      "atomic_number": 43,
      "name": "Tecnécio",
      "symbol": "Tc",
      "melting_point_K": 2430,
      "melting_point_C": 2157,
      "melting_point_F": 3914.6,
      "boiling_point_K": 4538,
      "boiling_point_C": 4265,
      "boiling_point_F": 7709.0,
      "notes_melting": "Elemento radioativo, valores estimados.",
      "plasma_start_K": 9500,
      "plasma_start_C": 9226.85,
      "plasma_start_F": 16640.33,
      "notes_plasma": "Temperatura para início de ionização significativa."
    },
    {
      "atomic_number": 44,
      "name": "Rutênio",
      "symbol": "Ru",
      "melting_point_K": 2607,
      "melting_point_C": 2334,
      "melting_point_F": 4233.2,
      "boiling_point_K": 4423,
      "boiling_point_C": 4150,
      "boiling_point_F": 7502.0,
      "plasma_start_K": 9500,
      "plasma_start_C": 9226.85,
      "plasma_start_F": 16640.33,
      "notes_plasma": "Temperatura para início de ionização significativa."
    },
    {
      "atomic_number": 45,
      "name": "Ródio",
      "symbol": "Rh",
      "melting_point_K": 2237,
      "melting_point_C": 1964,
      "melting_point_F": 3567.2,
      "boiling_point_K": 3968,
      "boiling_point_C": 3695,
      "boiling_point_F": 6683.0,
      "plasma_start_K": 9000,
      "plasma_start_C": 8726.85,
      "plasma_start_F": 15740.33,
      "notes_plasma": "Temperatura para início de ionização significativa."
    },
    {
      "atomic_number": 46,
      "name": "Paládio",
      "symbol": "Pd",
      "melting_point_K": 1828.15,
      "melting_point_C": 1555.0,
      "melting_point_F": 2831.0,
      "boiling_point_K": 3236,
      "boiling_point_C": 2963,
      "boiling_point_F": 5365.4,
      "plasma_start_K": 9000,
      "plasma_start_C": 8726.85,
      "plasma_start_F": 15740.33,
      "notes_plasma": "Temperatura para início de ionização significativa."
    },
    {
      "atomic_number": 47,
      "name": "Prata",
      "symbol": "Ag",
      "melting_point_K": 1234.93,
      "melting_point_C": 961.78,
      "melting_point_F": 1763.2,
      "boiling_point_K": 2435,
      "boiling_point_C": 2162,
      "boiling_point_F": 3923.6,
      "plasma_start_K": 8000,
      "plasma_start_C": 7726.85,
      "plasma_start_F": 13940.33,
      "notes_plasma": "Temperatura para início de ionização significativa."
    },
    {
      "atomic_number": 48,
      "name": "Cádmio",
      "symbol": "Cd",
      "melting_point_K": 594.22,
      "melting_point_C": 321.07,
      "melting_point_F": 609.93,
      "boiling_point_K": 1040,
      "boiling_point_C": 767,
      "boiling_point_F": 1412.6,
      "plasma_start_K": 7000,
      "plasma_start_C": 6726.85,
      "plasma_start_F": 12140.33,
      "notes_plasma": "Temperatura para início de ionização significativa."
    },
    {
      "atomic_number": 49,
      "name": "Índio",
      "symbol": "In",
      "melting_point_K": 429.75,
      "melting_point_C": 156.6,
      "melting_point_F": 313.88,
      "boiling_point_K": 2345,
      "boiling_point_C": 2072,
      "boiling_point_F": 3761.6,
      "plasma_start_K": 8000,
      "plasma_start_C": 7726.85,
      "plasma_start_F": 13940.33,
      "notes_plasma": "Temperatura para início de ionização significativa."
    },
    {
      "atomic_number": 50,
      "name": "Estanho",
      "symbol": "Sn",
      "melting_point_K": 505.08,
      "melting_point_C": 231.93,
      "melting_point_F": 449.47,
      "boiling_point_K": 2875,
      "boiling_point_C": 2602,
      "boiling_point_F": 4715.6,
      "plasma_start_K": 8000,
      "plasma_start_C": 7726.85,
      "plasma_start_F": 13940.33,
      "notes_plasma": "Temperatura para início de ionização significativa."
    },
    {
      "atomic_number": 51,
      "name": "Antimônio",
      "symbol": "Sb",
      "melting_point_K": 903.78,
      "melting_point_C": 630.63,
      "melting_point_F": 1167.13,
      "boiling_point_K": 1860,
      "boiling_point_C": 1587,
      "boiling_point_F": 2888.6,
      "plasma_start_K": 8000,
      "plasma_start_C": 7726.85,
      "plasma_start_F": 13940.33,
      "notes_plasma": "Temperatura para início de ionização significativa."
    },
    {
      "atomic_number": 52,
      "name": "Telúrio",
      "symbol": "Te",
      "melting_point_K": 722.66,
      "melting_point_C": 449.51,
      "melting_point_F": 841.12,
      "boiling_point_K": 1261,
      "boiling_point_C": 988,
      "boiling_point_F": 1810.4,
      "plasma_start_K": 8000,
      "plasma_start_C": 7726.85,
      "plasma_start_F": 13940.33,
      "notes_plasma": "Temperatura para início de ionização significativa."
    },
    {
      "atomic_number": 53,
      "name": "Iodo",
      "symbol": "I",
      "melting_point_K": 386.85,
      "melting_point_C": 113.7,
      "melting_point_F": 236.66,
      "boiling_point_K": 457.4,
      "boiling_point_C": 184.3,
      "boiling_point_F": 363.74,
      "plasma_start_K": 8500,
      "plasma_start_C": 8226.85,
      "plasma_start_F": 14840.33,
      "notes_plasma": "Temperatura para início de ionização significativa."
    },
    {
      "atomic_number": 54,
      "name": "Xenônio",
      "symbol": "Xe",
      "melting_point_K": 161.4,
      "melting_point_C": -111.75,
      "melting_point_F": -169.15,
      "boiling_point_K": 165.03,
      "boiling_point_C": -108.01,
      "boiling_point_F": -162.42,
      "plasma_start_K": 15000,
      "plasma_start_C": 14726.85,
      "plasma_start_F": 26540.33,
      "notes_plasma": "Gases nobres requerem mais energia para ionização."
    },
    {
      "atomic_number": 55,
      "name": "Césio",
      "symbol": "Cs",
      "melting_point_K": 301.7,
      "melting_point_C": 28.55,
      "melting_point_F": 83.39,
      "boiling_point_K": 944,
      "boiling_point_C": 671,
      "boiling_point_F": 1239.8,
      "plasma_start_K": 4500,
      "plasma_start_C": 4226.85,
      "plasma_start_F": 7640.33,
      "notes_plasma": "Alcalinos são mais fáceis de ionizar."
    },
    {
      "atomic_number": 56,
      "name": "Bário",
      "symbol": "Ba",
      "melting_point_K": 1000,
      "melting_point_C": 727,
      "melting_point_F": 1340.6,
      "boiling_point_K": 2170,
      "boiling_point_C": 1897,
      "boiling_point_F": 3446.6,
      "plasma_start_K": 6000,
      "plasma_start_C": 5726.85,
      "plasma_start_F": 10340.33,
      "notes_plasma": "Temperatura para início de ionização significativa."
    },
    {
      "atomic_number": 57,
      "name": "Lantânio",
      "symbol": "La",
      "melting_point_K": 1193,
      "melting_point_C": 920,
      "melting_point_F": 1688.0,
      "boiling_point_K": 3737,
      "boiling_point_C": 3464,
      "boiling_point_F": 6267.2,
      "plasma_start_K": 9000,
      "plasma_start_C": 8726.85,
      "plasma_start_F": 15740.33,
      "notes_plasma": "Temperatura para início de ionização significativa."
    },
    {
      "atomic_number": 58,
      "name": "Cério",
      "symbol": "Ce",
      "melting_point_K": 1068,
      "melting_point_C": 795,
      "melting_point_F": 1463.0,
      "boiling_point_K": 3716,
      "boiling_point_C": 3443,
      "boiling_point_F": 6229.4,
      "plasma_start_K": 9000,
      "plasma_start_C": 8726.85,
      "plasma_start_F": 15740.33,
      "notes_plasma": "Temperatura para início de ionização significativa."
    },
    {
      "atomic_number": 72,
      "name": "Háfnio",
      "symbol": "Hf",
      "melting_point_K": 2506,
      "melting_point_C": 2233,
      "melting_point_F": 4051.4,
      "boiling_point_K": 3720,
      "boiling_point_C": 3447,
      "boiling_point_F": 6236.6,
      "plasma_start_K": 9500,
      "plasma_start_C": 9226.85,
      "plasma_start_F": 16640.33,
      "notes_plasma": "Temperatura para início de ionização significativa."
    },
    {
      "atomic_number": 73,
      "name": "Tântalo",
      "symbol": "Ta",
      "melting_point_K": 3290,
      "melting_point_C": 3017,
      "melting_point_F": 5462.6,
      "boiling_point_K": 5731,
      "boiling_point_C": 5458,
      "boiling_point_F": 9856.4,
      "plasma_start_K": 10500,
      "plasma_start_C": 10226.85,
      "plasma_start_F": 18440.33,
      "notes_plasma": "Temperatura para início de ionização significativa."
    },
    {
      "atomic_number": 74,
      "name": "Tungstênio",
      "symbol": "W",
      "melting_point_K": 3695,
      "melting_point_C": 3422,
      "melting_point_F": 6191.6,
      "boiling_point_K": 6203,
      "boiling_point_C": 5930,
      "boiling_point_F": 10697.0,
      "plasma_start_K": 11000,
      "plasma_start_C": 10726.85,
      "plasma_start_F": 19340.33,
      "notes_plasma": "Temperatura para início de ionização significativa."
    },
    {
      "atomic_number": 75,
      "name": "Rênio",
      "symbol": "Re",
      "melting_point_K": 3459,
      "melting_point_C": 3186,
      "melting_point_F": 5766.8,
      "boiling_point_K": 5869,
      "boiling_point_C": 5596,
      "boiling_point_F": 10104.8,
      "plasma_start_K": 10500,
      "plasma_start_C": 10226.85,
      "plasma_start_F": 18440.33,
      "notes_plasma": "Temperatura para início de ionização significativa."
    },
    {
      "atomic_number": 76,
      "name": "Ósmio",
      "symbol": "Os",
      "melting_point_K": 3306,
      "melting_point_C": 3033,
      "melting_point_F": 5491.4,
      "boiling_point_K": 5300,
      "boiling_point_C": 5027,
      "boiling_point_F": 9100.4,
      "plasma_start_K": 10000,
      "plasma_start_C": 9726.85,
      "plasma_start_F": 17540.33,
      "notes_plasma": "Temperatura para início de ionização significativa."
    },
    {
      "atomic_number": 77,
      "name": "Irídio",
      "symbol": "Ir",
      "melting_point_K": 2719,
      "melting_point_C": 2446,
      "melting_point_F": 4434.8,
      "boiling_point_K": 4701,
      "boiling_point_C": 4428,
      "boiling_point_F": 8002.4,
      "plasma_start_K": 10000,
      "plasma_start_C": 9726.85,
      "plasma_start_F": 17540.33,
      "notes_plasma": "Temperatura para início de ionização significativa."
    },
    {
      "atomic_number": 78,
      "name": "Platina",
      "symbol": "Pt",
      "melting_point_K": 2041.4,
      "melting_point_C": 1768.25,
      "melting_point_F": 3214.85,
      "boiling_point_K": 4098,
      "boiling_point_C": 3825,
      "boiling_point_F": 6917.0,
      "plasma_start_K": 9500,
      "plasma_start_C": 9226.85,
      "plasma_start_F": 16640.33,
      "notes_plasma": "Temperatura para início de ionização significativa."
    },
    {
      "atomic_number": 79,
      "name": "Ouro",
      "symbol": "Au",
      "melting_point_K": 1337.33,
      "melting_point_C": 1064.18,
      "melting_point_F": 1947.52,
      "boiling_point_K": 3129,
      "boiling_point_C": 2856,
      "boiling_point_F": 5172.8,
      "plasma_start_K": 9000,
      "plasma_start_C": 8726.85,
      "plasma_start_F": 15740.33,
      "notes_plasma": "Temperatura para início de ionização significativa."
    },
    {
      "atomic_number": 80,
      "name": "Mercúrio",
      "symbol": "Hg",
      "melting_point_K": 234.32,
      "melting_point_C": -38.83,
      "melting_point_F": -37.89,
      "boiling_point_K": 629.88,
      "boiling_point_C": 356.73,
      "boiling_point_F": 674.11,
      "plasma_start_K": 7000,
      "plasma_start_C": 6726.85,
      "plasma_start_F": 12140.33,
      "notes_plasma": "Temperatura para início de ionização significativa."
    },
    {
      "atomic_number": 81,
      "name": "Tálio",
      "symbol": "Tl",
      "melting_point_K": 577,
      "melting_point_C": 304,
      "melting_point_F": 579.2,
      "boiling_point_K": 1746,
      "boiling_point_C": 1473,
      "boiling_point_F": 2683.4,
      "plasma_start_K": 7000,
      "plasma_start_C": 6726.85,
      "plasma_start_F": 12140.33,
      "notes_plasma": "Temperatura para início de ionização significativa."
    },
    {
      "atomic_number": 82,
      "name": "Chumbo",
      "symbol": "Pb",
      "melting_point_K": 600.61,
      "melting_point_C": 327.46,
      "melting_point_F": 621.43,
      "boiling_point_K": 2022,
      "boiling_point_C": 1749,
      "boiling_point_F": 3180.2,
      "plasma_start_K": 7500,
      "plasma_start_C": 7226.85,
      "plasma_start_F": 13040.33,
      "notes_plasma": "Temperatura para início de ionização significativa."
    },
    {
      "atomic_number": 83,
      "name": "Bismuto",
      "symbol": "Bi",
      "melting_point_K": 544.7,
      "melting_point_C": 271.55,
      "melting_point_F": 520.79,
      "boiling_point_K": 1837,
      "boiling_point_C": 1564,
      "boiling_point_F": 2847.2,
      "plasma_start_K": 7500,
      "plasma_start_C": 7226.85,
      "plasma_start_F": 13040.33,
      "notes_plasma": "Temperatura para início de ionização significativa."
    },
    {
      "atomic_number": 86,
      "name": "Radônio",
      "symbol": "Rn",
      "melting_point_K": 202,
      "melting_point_C": -71.15,
      "melting_point_F": -96.07,
      "boiling_point_K": 211.3,
      "boiling_point_C": -61.85,
      "boiling_point_F": -79.33,
      "notes_melting": "Elemento radioativo, valores experimentais.",
      "plasma_start_K": 15000,
      "plasma_start_C": 14726.85,
      "plasma_start_F": 26540.33,
      "notes_plasma": "Gases nobres, radioativo, requer alta energia para ionização."
    },
    {
      "atomic_number": 92,
      "name": "Urânio",
      "symbol": "U",
      "melting_point_K": 1405.3,
      "melting_point_C": 1132.15,
      "melting_point_F": 2070.07,
      "boiling_point_K": 4404,
      "boiling_point_C": 4131,
      "boiling_point_F": 7467.8,
      "notes_melting": "Elemento radioativo, valores para o isótopo mais comum.",
      "plasma_start_K": 9000,
      "plasma_start_C": 8726.85,
      "plasma_start_F": 15740.33,
      "notes_plasma": "Elemento radioativo, temperatura para início de ionização significativa."
    }
  ]
}